read_data config.data
Reading data file ...
  orthogonal box = (0.0000000 0.0000000 0.0000000) to (16.147754 16.147754 16.147754)
  1 by 1 by 1 MPI processor grid
  reading atoms ...
  4000 atoms
  reading velocities ...
  4000 velocities
  read_data CPU = 0.004 seconds
thermo_style custom step temp pe ke etotal press
velocity all create $t 12345 mom yes rot yes dist gaussian
velocity all create 1.0 12345 mom yes rot yes dist gaussian
# NVT simulation at T = $t (till equilibration)
fix mynve all nve
fix mylgv all langevin $t $t 0.1 12345 zero yes
fix mylgv all langevin 1.0 $t 0.1 12345 zero yes
fix mylgv all langevin 1.0 1.0 0.1 12345 zero yes
timestep 0.001
run 5000
Neighbor list info ...
  update every 1 steps, delay 10 steps, check yes
  max neighbors/atom: 2000, page size: 100000
  master list distance cutoff = 2.8
  ghost atom cutoff = 2.8
  binsize = 1.4, bins = 12 12 12
  1 neighbor lists, perpetual/occasional/extra = 1 0 0
  (1) pair lj/cut, perpetual
      attributes: half, newton on
      pair build: half/bin/atomonly/newton
      stencil: half/bin/3d
      bin: standard
Per MPI rank memory allocation (min/avg/max) = 3.690 | 3.690 | 3.690 Mbytes
Step Temp PotEng KinEng TotEng Press 
       0            1   -5.4449459     1.499625   -3.9453209    7.5006706 
      50    1.0617582   -5.5966923    1.5922391   -4.0044531    6.8170239 
     100    1.0272072   -5.6292604    1.5404256   -4.0888348    6.6036435 
     150    1.0377757   -5.6237958    1.5562743   -4.0675215    6.6403943 
     200    1.0258123   -5.6536101    1.5383338   -4.1152763    6.5016445 
     250     1.008155   -5.6551004    1.5118544    -4.143246    6.4672222 
     300    1.0196475   -5.6694623    1.5290888   -4.1403735    6.4146995 
     350    1.0031726   -5.6758642    1.5043827   -4.1714816    6.3494685 
     400   0.99586923   -5.6812696    1.4934304   -4.1878392    6.3086442 
     450    1.0122472    -5.680921    1.5179912   -4.1629298    6.3231867 
     500   0.99449256   -5.6692874    1.4913659   -4.1779215    6.3458178 
     550    1.0092515   -5.6838044    1.5134988   -4.1703056    6.2798738 
     600    1.0193642   -5.6966715     1.528664   -4.1680075    6.2334356 
     650    1.0076713   -5.6974705     1.511129   -4.1863415    6.2220031 
     700   0.99667311   -5.6867392    1.4946359   -4.1921033    6.2602657 
     750    1.0048552   -5.6924866     1.506906   -4.1855807    6.2470388 
     800    1.0224452   -5.7112133    1.5332844   -4.1779289    6.1650047 
     850    1.0059399   -5.6785924    1.5085326   -4.1700598    6.3183694 
     900    1.0172031   -5.6858928    1.5254232   -4.1604696    6.2823188 
     950   0.99413738   -5.6952759    1.4908333   -4.2044426    6.1966492 
    1000      1.00328    -5.702317    1.5045437   -4.1977733    6.1811986 
    1050    1.0303293   -5.7036307    1.5451076   -4.1585231    6.2086576 
    1100     1.010571   -5.6921455    1.5154775   -4.1766679    6.2345177 
    1150   0.99421474    -5.700535    1.4909493   -4.2095858    6.1630776 
    1200   0.99039214   -5.7195743    1.4852168   -4.2343575    6.0636889 
    1250   0.99273908   -5.7318437    1.4887363   -4.2431074    6.0196743 
    1300   0.99984276   -5.7647988    1.4993892   -4.2654096    5.8689836 
    1350   0.99797295   -5.7512631    1.4965852   -4.2546779    5.9343798 
    1400   0.99849755    -5.746857    1.4973719   -4.2494851    5.9509745 
    1450   0.97083502   -5.7582776    1.4558885   -4.3023892    5.8705161 
    1500   0.99828824   -5.7486311     1.497058   -4.2515731    5.9295866 
    1550   0.98993667   -5.7428119    1.4845338   -4.2582781    5.9388454 
    1600   0.99785021   -5.7388336    1.4964011   -4.2424325    5.9801666 
    1650     1.010092   -5.7535627    1.5147592   -4.2388035    5.9314545 
    1700   0.99299975   -5.7632531    1.4891273   -4.2741259    5.8748953 
    1750   0.98426918    -5.744843    1.4760347   -4.2688083    5.9530141 
    1800   0.99823304   -5.7532811    1.4969752   -4.2563058    5.9150325 
    1850   0.98114457   -5.7724293    1.4713489   -4.3010804    5.8163957 
    1900   0.97140806   -5.7504804    1.4567478   -4.2937326    5.9121759 
    1950    1.0079719   -5.7638336    1.5115799   -4.2522537    5.8782966 
    2000   0.97567974   -5.7334022    1.4631537   -4.2702485    5.9884151 
    2050   0.98438733   -5.7384636    1.4762118   -4.2622518    5.9761952 
    2100      1.00241   -5.7490506    1.5032392   -4.2458114    5.9349206 
    2150   0.98289147   -5.7313998    1.4739686   -4.2574311    6.0259557 
    2200   0.99776192   -5.7273758    1.4962687    -4.231107    6.0609602 
    2250     1.000512   -5.7224245    1.5003928   -4.2220317     6.097574 
    2300   0.99421212   -5.7118303    1.4909454    -4.220885    6.1269579 
    2350    1.0117572   -5.7427077    1.5172564   -4.2254513     5.998821 
    2400   0.97867099   -5.7320134    1.4676395    -4.264374    6.0235591 
    2450     1.012194    -5.753821    1.5179115   -4.2359095    5.9391223 
    2500    1.0112953   -5.7375024    1.5165637   -4.2209388    6.0117917 
    2550   0.97026262   -5.7189073    1.4550301   -4.2638772     6.081996 
    2600   0.98756498   -5.7528216    1.4809771   -4.2718445    5.9377841 
    2650   0.98077733   -5.7413509    1.4707982   -4.2705527    5.9826223 
    2700   0.99763345     -5.74152    1.4960761   -4.2454439    6.0036864 
    2750     1.009221   -5.7667921     1.513453   -4.2533391     5.888029 
    2800    1.0042344   -5.7584949     1.505975   -4.2525199    5.8987804 
    2850   0.99766994   -5.7426454    1.4961308   -4.2465146    5.9741449 
    2900    1.0053897   -5.7483223    1.5077075   -4.2406149    5.9635365 
    2950    1.0061499    -5.714838    1.5088475   -4.2059905    6.1268718 
    3000     1.005073   -5.7338232    1.5072327   -4.2265905    6.0460426 
    3050    1.0137244   -5.7227265    1.5202065     -4.20252    6.1051591 
    3100    1.0227882   -5.7387967    1.5337988   -4.2049979    6.0226648 
    3150    1.0119367   -5.7512582    1.5175256   -4.2337326    5.9680362 
    3200    1.0147494   -5.7618909    1.5217435   -4.2401473    5.9305256 
    3250    1.0157004   -5.7412008    1.5231698   -4.2180311    6.0338711 
    3300    1.0069693   -5.7579047    1.5100763   -4.2478284    5.9399311 
    3350   0.98680225   -5.7348936    1.4798333   -4.2550603    6.0133602 
    3400   0.99953549   -5.7391878    1.4989284   -4.2402594    5.9886444 
    3450    1.0118904   -5.7577655    1.5174561   -4.2403095     5.910451 
    3500    1.0032539   -5.7188506    1.5045046    -4.214346    6.1030765 
    3550    1.0022894   -5.7238265    1.5030583   -4.2207682    6.0775338 
    3600   0.99596546   -5.7344405    1.4935747   -4.2408658    6.0291429 
    3650   0.99096502   -5.7333995    1.4860759   -4.2473236    6.0335477 
    3700   0.98925312    -5.737255    1.4835087   -4.2537463    5.9970096 
    3750   0.99159286   -5.7252748    1.4870174   -4.2382573     6.047226 
    3800    1.0026896   -5.7280602    1.5036584   -4.2244018    6.0362272 
    3850    1.0079673   -5.7210891    1.5115729   -4.2095162    6.0681123 
    3900     1.007531    -5.716106    1.5109187   -4.2051872    6.1132872 
    3950      1.02122   -5.7318364     1.531447   -4.2003893    6.0727346 
    4000    1.0167508   -5.7342706    1.5247449   -4.2095257    6.0557194 
    4050    0.9918528   -5.7092432    1.4874073   -4.2218359    6.1385936 
    4100    1.0155384   -5.7340899    1.5229268   -4.2111632    6.0283997 
    4150    1.0088725   -5.7005735    1.5129304   -4.1876431    6.1912244 
    4200    1.0315582   -5.7160622    1.5469504   -4.1691118    6.1565017 
    4250    1.0042294   -5.6939209    1.5059674   -4.1879535    6.2394223 
    4300    1.0074709   -5.7052909    1.5108285   -4.1944624    6.1881341 
    4350    1.0006383   -5.7191745    1.5005822   -4.2185923    6.1219427 
    4400   0.99156234   -5.7109091    1.4869717   -4.2239375    6.1425652 
    4450     0.984849   -5.7001344    1.4769042   -4.2232303    6.1990556 
    4500    1.0053937   -5.7245152    1.5077135   -4.2168017    6.0980633 
    4550    1.0113544   -5.6973535    1.5166523   -4.1807012    6.2346769 
    4600     1.000789   -5.6959094    1.5008081   -4.1951013    6.2360492 
    4650    1.0121067   -5.7170875    1.5177805    -4.199307    6.1305627 
    4700    0.9867926    -5.718599    1.4798189   -4.2387802    6.0888211 
    4750   0.98915997   -5.7395284     1.483369   -4.2561593    6.0001489 
    4800    0.9973205   -5.7438046    1.4956068   -4.2481978    6.0049517 
    4850   0.98436672   -5.7300881    1.4761809   -4.2539071    6.0552939 
    4900    1.0019835   -5.7314019    1.5025995   -4.2288024     6.053426 
    4950     1.005042    -5.715047    1.5071861   -4.2078608    6.1316218 
    5000    1.0243633   -5.6989618    1.5361608   -4.1628009    6.2234764 
Loop time of 5.72444 on 1 procs for 5000 steps with 4000 atoms

Performance: 75465.832 tau/day, 873.447 timesteps/s
100.0% CPU use with 1 MPI tasks x 1 OpenMP threads

MPI task timing breakdown:
Section |  min time  |  avg time  |  max time  |%varavg| %total
---------------------------------------------------------------
Pair    | 4.6168     | 4.6168     | 4.6168     |   0.0 | 80.65
Neigh   | 0.43717    | 0.43717    | 0.43717    |   0.0 |  7.64
Comm    | 0.061308   | 0.061308   | 0.061308   |   0.0 |  1.07
Output  | 0.0017917  | 0.0017917  | 0.0017917  |   0.0 |  0.03
Modify  | 0.57708    | 0.57708    | 0.57708    |   0.0 | 10.08
Other   |            | 0.03025    |            |       |  0.53

Nlocal:        4000.00 ave        4000 max        4000 min
Histogram: 1 0 0 0 0 0 0 0 0 0
Nghost:        5806.00 ave        5806 max        5806 min
Histogram: 1 0 0 0 0 0 0 0 0 0
Neighs:        169997.0 ave      169997 max      169997 min
Histogram: 1 0 0 0 0 0 0 0 0 0

Total # of neighbors = 169997
Ave neighs/atom = 42.499250
Neighbor list builds = 136
Dangerous builds = 0
clear
OMP_NUM_THREADS environment is not set. Defaulting to 1 thread. (src/comm.cpp:98)
  using 1 OpenMP thread(s) per MPI task
next t
next a
jump SELF
# 1) Initialization
units lj
dimension 3
atom_style atomic
pair_style lj/cut 2.5
boundary p p p

# 2) System definition
variable a loop 6
# Define temperatures
variable t index 1.1 1.0 0.9 0.8 0.7 0.6

# 4) Visualization
thermo 50

# 5) Run
log log.$a
log log.3
