read_data config.data
Reading data file ...
  orthogonal box = (0.0000000 0.0000000 0.0000000) to (16.147754 16.147754 16.147754)
  1 by 1 by 1 MPI processor grid
  reading atoms ...
  4000 atoms
  reading velocities ...
  4000 velocities
  read_data CPU = 0.004 seconds
thermo_style custom step temp pe ke etotal press
velocity all create $t 12345 mom yes rot yes dist gaussian
velocity all create 0.8 12345 mom yes rot yes dist gaussian
# NVT simulation at T = $t (till equilibration)
fix mynve all nve
fix mylgv all langevin $t $t 0.1 12345 zero yes
fix mylgv all langevin 0.8 $t 0.1 12345 zero yes
fix mylgv all langevin 0.8 0.8 0.1 12345 zero yes
timestep 0.001
run 5000
Neighbor list info ...
  update every 1 steps, delay 10 steps, check yes
  max neighbors/atom: 2000, page size: 100000
  master list distance cutoff = 2.8
  ghost atom cutoff = 2.8
  binsize = 1.4, bins = 12 12 12
  1 neighbor lists, perpetual/occasional/extra = 1 0 0
  (1) pair lj/cut, perpetual
      attributes: half, newton on
      pair build: half/bin/atomonly/newton
      stencil: half/bin/3d
      bin: standard
Per MPI rank memory allocation (min/avg/max) = 3.690 | 3.690 | 3.690 Mbytes
Step Temp PotEng KinEng TotEng Press 
       0          0.8   -5.4449459       1.1997   -4.2452459    7.3107181 
      50   0.91398339   -5.7208556    1.3706323   -4.3502232    6.0727021 
     100      0.86154   -5.7899238    1.2919869   -4.4979368    5.6481703 
     150   0.85441574   -5.8066406    1.2813032   -4.5253374    5.5529108 
     200   0.83787574   -5.8511541    1.2564994   -4.5946547    5.3307419 
     250   0.81622112   -5.8642173    1.2240256   -4.6401917    5.2359151 
     300    0.8203049   -5.8807092    1.2301497   -4.6505594    5.1596351 
     350   0.80728667   -5.8949135    1.2106273   -4.6842862    5.0610001 
     400   0.80038068   -5.9042452    1.2002709   -4.7039743    4.9996817 
     450   0.80969221   -5.9055741    1.2142347   -4.6913394    4.9959198 
     500   0.79916038   -5.9039081    1.1984409   -4.7054673    4.9817572 
     550   0.80834317   -5.9150516    1.2122116     -4.70284     4.924936 
     600   0.81743893   -5.9272826    1.2258519   -4.7014308    4.8815141 
     650   0.80779374   -5.9316336    1.2113877   -4.7202459    4.8531154 
     700   0.80299972   -5.9292776    1.2041984   -4.7250792    4.8518917 
     750    0.8058275   -5.9315894    1.2084391   -4.7231503    4.8492065 
     800   0.81562987   -5.9401417    1.2231389   -4.7170027    4.8128931 
     850   0.81118116   -5.9256646    1.2164675    -4.709197    4.8856456 
     900   0.81228169   -5.9330545    1.2181179   -4.7149366    4.8442649 
     950   0.79025952    -5.936847    1.1850929   -4.7517541    4.7861202 
    1000   0.80247055   -5.9562035    1.2034049   -4.7527986    4.7036389 
    1050   0.81557332   -5.9491894    1.2230541   -4.7261352    4.7587041 
    1100   0.81447498   -5.9498842     1.221407   -4.7284772    4.7442602 
    1150   0.82456481   -5.9617829     1.236538   -4.7252449    4.6922062 
    1200   0.81177397   -5.9662938    1.2173565   -4.7489373    4.6641095 
    1250   0.80110518   -5.9462396    1.2013574   -4.7448822    4.7571694 
    1300   0.80105338   -5.9486185    1.2012797   -4.7473389       4.7604 
    1350   0.80636478   -5.9723078    1.2092448    -4.763063    4.6503067 
    1400   0.79844476   -5.9745412    1.1973677   -4.7771734    4.6239342 
    1450   0.78103652   -5.9782677    1.1712619   -4.8070058    4.5896032 
    1500   0.80682257   -5.9863321    1.2099313   -4.7764008    4.5664109 
    1550   0.78883494    -5.947466    1.1829566   -4.7645094    4.7094612 
    1600   0.81180705   -5.9708032    1.2174061    -4.753397    4.6282999 
    1650   0.80789744   -5.9675978    1.2115432   -4.7560546    4.6443528 
    1700   0.80829772   -5.9774997    1.2121435   -4.7653562    4.5864096 
    1750   0.79503473    -5.953974     1.192254   -4.7617201    4.6835751 
    1800   0.80933783   -5.9830827    1.2137032   -4.7693794    4.5748439 
    1850   0.79379711   -5.9942353     1.190398   -4.8038374    4.5325413 
    1900   0.78446196   -5.9784546    1.1763988   -4.8020559    4.5868344 
    1950   0.80011024   -5.9868719    1.1998653   -4.7870066    4.5391187 
    2000   0.79379443   -5.9735655     1.190394   -4.7831716    4.6052111 
    2050   0.79195054   -5.9683921    1.1876288   -4.7807632    4.6476309 
    2100   0.79583119     -5.96459    1.1934483   -4.7711416    4.6722099 
    2150   0.81273381   -5.9843216    1.2187959   -4.7655257    4.5912081 
    2200   0.79912529   -5.9751689    1.1983883   -4.7767806    4.6034985 
    2250   0.81515358   -6.0011769    1.2224247   -4.7787522    4.4972711 
    2300   0.78259221   -5.9549823    1.1735948   -4.7813875    4.6889844 
    2350   0.80780965   -5.9748047    1.2114116   -4.7633932    4.6301727 
    2400    0.8074449   -5.9966711    1.2108646   -4.7858065    4.5304652 
    2450   0.81619776   -6.0064339    1.2239906   -4.7824434    4.4889689 
    2500    0.8050384   -5.9746445    1.2072557   -4.7673888    4.6332395 
    2550   0.80375941   -5.9793373    1.2053377   -4.7739996    4.6159666 
    2600   0.78342633   -5.9500705    1.1748457   -4.7752248    4.7340513 
    2650    0.7993096   -5.9831554    1.1986647   -4.7844908     4.598561 
    2700    0.8105541   -5.9720728    1.2155272   -4.7565456    4.6561108 
    2750    0.8237203   -5.9776231    1.2352715   -4.7423516     4.644078 
    2800   0.80335896   -5.9559646    1.2047372   -4.7512274    4.7351432 
    2850   0.81967463   -5.9912665    1.2292046    -4.762062     4.578377 
    2900   0.80656044     -5.98905    1.2095382   -4.7795118    4.5628208 
    2950   0.81566758    -5.973711    1.2231955   -4.7505155    4.6428911 
    3000   0.82201721   -5.9859464    1.2327176   -4.7532289    4.5778119 
    3050   0.82020719   -5.9860343    1.2300032   -4.7560311    4.5769784 
    3100   0.80940187   -5.9833032    1.2137993   -4.7695039    4.5655979 
    3150   0.81544745   -5.9744531    1.2228654   -4.7515877    4.6012363 
    3200   0.80653654    -5.972829    1.2095024   -4.7633267    4.6167431 
    3250    0.8061092   -5.9748878    1.2088615   -4.7660263    4.6270152 
    3300    0.8155608   -5.9729053    1.2230354   -4.7498699    4.6436028 
    3350   0.80424636    -5.976079    1.2060679    -4.770011    4.6207854 
    3400   0.78360722   -5.9840193     1.175117   -4.8089023    4.5588137 
    3450    0.8121251   -6.0215033    1.2178831   -4.8036202    4.3989347 
    3500   0.79046445   -5.9895436    1.1854003   -4.8041434    4.5248899 
    3550   0.80431939   -5.9914382    1.2061775   -4.7852607    4.5362065 
    3600   0.79897325   -5.9828288    1.1981603   -4.7846685    4.5642538 
    3650   0.80765469   -5.9924194    1.2111792   -4.7812403    4.5330533 
    3700   0.78145909   -5.9826889    1.1718956   -4.8107934    4.5687074 
    3750   0.81426481   -5.9911893    1.2210919   -4.7700974    4.5648825 
    3800   0.80078013   -5.9921455    1.2008699   -4.7912756    4.5320062 
    3850   0.82258159   -6.0095965    1.2335639   -4.7760325    4.4614582 
    3900   0.81189327   -6.0046469    1.2175354   -4.7871115    4.4812922 
    3950   0.80866149   -5.9994795     1.212689   -4.7867905    4.5024516 
    4000   0.80300251   -6.0060402    1.2042026   -4.8018375    4.4828579 
    4050   0.79409673   -6.0057989    1.1908473   -4.8149516      4.47788 
    4100   0.80308095   -6.0064483    1.2043203    -4.802128    4.4706244 
    4150   0.81207058   -5.9920204    1.2178013    -4.774219    4.5461643 
    4200   0.80376414   -5.9746604    1.2053448   -4.7693156    4.6259092 
    4250   0.78889434   -5.9769532    1.1830457   -4.7939075     4.595554 
    4300   0.80907218   -5.9853512    1.2133049   -4.7720463    4.5613934 
    4350   0.80326407   -5.9897178    1.2045949   -4.7851229    4.5340889 
    4400   0.80585628   -6.0142138    1.2084822   -4.8057316    4.4244927 
    4450   0.79942932   -6.0034755    1.1988442   -4.8046313    4.4736032 
    4500    0.7866188   -6.0031394    1.1796332   -4.8235062     4.481251 
    4550   0.81085165   -5.9959208    1.2159734   -4.7799474    4.5382311 
    4600   0.80034812   -5.9970223    1.2002221   -4.7968002    4.5107559 
    4650   0.79753121    -6.005931    1.1959977   -4.8099333    4.4658134 
    4700   0.80132646   -5.9986227    1.2016892   -4.7969335    4.4960674 
    4750   0.79065109   -6.0193456    1.1856801   -4.8336655    4.3858983 
    4800   0.79622806   -6.0077023    1.1940435   -4.8136588    4.4387527 
    4850   0.78711627   -6.0079865    1.1803792   -4.8276072    4.4423852 
    4900   0.80466704   -6.0157258    1.2066988    -4.809027    4.4284701 
    4950   0.79692635   -6.0130377    1.1950907    -4.817947    4.4292047 
    5000   0.80534349   -6.0220536    1.2077132   -4.8143403     4.395439 
Loop time of 5.63629 on 1 procs for 5000 steps with 4000 atoms

Performance: 76646.116 tau/day, 887.108 timesteps/s
100.0% CPU use with 1 MPI tasks x 1 OpenMP threads

MPI task timing breakdown:
Section |  min time  |  avg time  |  max time  |%varavg| %total
---------------------------------------------------------------
Pair    | 4.5817     | 4.5817     | 4.5817     |   0.0 | 81.29
Neigh   | 0.38707    | 0.38707    | 0.38707    |   0.0 |  6.87
Comm    | 0.060131   | 0.060131   | 0.060131   |   0.0 |  1.07
Output  | 0.0015239  | 0.0015239  | 0.0015239  |   0.0 |  0.03
Modify  | 0.57535    | 0.57535    | 0.57535    |   0.0 | 10.21
Other   |            | 0.03056    |            |       |  0.54

Nlocal:        4000.00 ave        4000 max        4000 min
Histogram: 1 0 0 0 0 0 0 0 0 0
Nghost:        5724.00 ave        5724 max        5724 min
Histogram: 1 0 0 0 0 0 0 0 0 0
Neighs:        169589.0 ave      169589 max      169589 min
Histogram: 1 0 0 0 0 0 0 0 0 0

Total # of neighbors = 169589
Ave neighs/atom = 42.397250
Neighbor list builds = 121
Dangerous builds = 0
clear
OMP_NUM_THREADS environment is not set. Defaulting to 1 thread. (src/comm.cpp:98)
  using 1 OpenMP thread(s) per MPI task
next t
next a
jump SELF
# 1) Initialization
units lj
dimension 3
atom_style atomic
pair_style lj/cut 2.5
boundary p p p

# 2) System definition
variable a loop 6
# Define temperatures
variable t index 1.1 1.0 0.9 0.8 0.7 0.6

# 4) Visualization
thermo 50

# 5) Run
log log.$a
log log.5
