read_data config.data
Reading data file ...
  orthogonal box = (0.0000000 0.0000000 0.0000000) to (16.147754 16.147754 16.147754)
  1 by 1 by 1 MPI processor grid
  reading atoms ...
  4000 atoms
  reading velocities ...
  4000 velocities
  read_data CPU = 0.004 seconds
thermo_style custom step temp pe ke etotal press
velocity all create $t 12345 mom yes rot yes dist gaussian
velocity all create 0.7 12345 mom yes rot yes dist gaussian
# NVT simulation at T = $t (till equilibration)
fix mynve all nve
fix mylgv all langevin $t $t 0.1 12345 zero yes
fix mylgv all langevin 0.7 $t 0.1 12345 zero yes
fix mylgv all langevin 0.7 0.7 0.1 12345 zero yes
timestep 0.001
run 5000
Neighbor list info ...
  update every 1 steps, delay 10 steps, check yes
  max neighbors/atom: 2000, page size: 100000
  master list distance cutoff = 2.8
  ghost atom cutoff = 2.8
  binsize = 1.4, bins = 12 12 12
  1 neighbor lists, perpetual/occasional/extra = 1 0 0
  (1) pair lj/cut, perpetual
      attributes: half, newton on
      pair build: half/bin/atomonly/newton
      stencil: half/bin/3d
      bin: standard
Per MPI rank memory allocation (min/avg/max) = 3.690 | 3.690 | 3.690 Mbytes
Step Temp PotEng KinEng TotEng Press 
       0          0.7   -5.4449459    1.0497375   -4.3952084    7.2157419 
      50   0.84024641   -5.7829542    1.2600545   -4.5228997     5.699573 
     100   0.77890462    -5.870679    1.1680648   -4.7026141      5.16609 
     150   0.76319356     -5.90006    1.1445041   -4.7555559     4.997489 
     200   0.74374194   -5.9509862     1.115334   -4.8356522     4.736547 
     250   0.72089541   -5.9711094    1.0810728   -4.8900366     4.605415 
     300   0.72089818   -5.9890527    1.0810769   -4.9079758    4.5163966 
     350    0.7099437   -6.0069352    1.0646493   -4.9422859     4.401078 
     400   0.70252702   -6.0171705    1.0535271   -4.9636434     4.332709 
     450   0.70919561   -6.0208903    1.0635275   -4.9573629    4.3141389 
     500   0.70149871   -6.0227636     1.051985   -4.9707786    4.2868917 
     550   0.70801184   -6.0314419    1.0617523   -4.9696896    4.2403449 
     600    0.7170709   -6.0455186    1.0753374   -4.9701812    4.1876528 
     650   0.70801847   -6.0510209    1.0617622   -4.9892587    4.1545381 
     700   0.70650582    -6.052458    1.0594938   -4.9929642    4.1367155 
     750   0.70515066   -6.0531292    1.0574616   -4.9956677    4.1347172 
     800   0.71232673   -6.0592225     1.068223   -4.9909996    4.1096157 
     850   0.71153765   -6.0488366    1.0670397    -4.981797    4.1651505 
     900   0.70983196    -6.058063    1.0644818   -4.9935813    4.1130608 
     950   0.69046427   -6.0619306    1.0354375   -5.0264931    4.0543537 
    1000   0.70123157   -6.0819327    1.0515844   -5.0303483    3.9641643 
    1050   0.71066328   -6.0782722    1.0657284   -5.0125438    3.9964229 
    1100    0.6966722   -6.0624101    1.0447471   -5.0176631    4.0594122 
    1150   0.70022807   -6.0820099    1.0500795   -5.0319304    3.9674215 
    1200   0.69715095   -6.0853094     1.045465   -5.0398444    3.9428793 
    1250   0.70889913   -6.0874568    1.0630829   -5.0243739    3.9503669 
    1300   0.71306591   -6.0942788    1.0693315   -5.0249473    3.9489006 
    1350   0.69688826   -6.0590058    1.0450711   -5.0139347    4.1145321 
    1400   0.69327995   -6.0550249    1.0396599   -5.0153649    4.1319277 
    1450   0.69324529   -6.0740205     1.039608   -5.0344126     4.020267 
    1500   0.70103109   -6.0744479    1.0512838   -5.0231641    4.0065393 
    1550   0.71233052   -6.0747423    1.0682287   -5.0065137    4.0099792 
    1600   0.72176391   -6.0882726    1.0823752   -5.0058974    3.9515446 
    1650   0.71076312    -6.068902    1.0658781   -5.0030239    4.0387485 
    1700   0.72110996   -6.0974173    1.0813945   -5.0160228    3.9203848 
    1750   0.70219587   -6.0895957    1.0530305   -5.0365653    3.9403801 
    1800   0.70565386   -6.0976868    1.0582162   -5.0394706    3.9016826 
    1850   0.68879296   -6.1026151    1.0329311    -5.069684    3.8545186 
    1900   0.68055404   -6.0838382    1.0205758   -5.0632623    3.9423091 
    1950   0.70791307   -6.0949636    1.0616041   -5.0333594    3.9119946 
    2000   0.68935995   -6.0965535    1.0337814   -5.0627721    3.8913656 
    2050   0.68259029   -6.1014086    1.0236295   -5.0777791    3.8465092 
    2100   0.68961515   -6.1034037    1.0341641   -5.0692396    3.8468371 
    2150   0.68870879   -6.1114126    1.0328049   -5.0786076    3.8034408 
    2200    0.6897201   -6.1045206    1.0343215   -5.0701991     3.832691 
    2250   0.71362412   -6.1102508    1.0701686   -5.0400822    3.8439167 
    2300   0.69061554   -6.1007194    1.0356643   -5.0650551    3.8856878 
    2350   0.70497175   -6.1196487    1.0571933   -5.0624555     3.812347 
    2400   0.68534526   -6.0961047    1.0277609   -5.0683438    3.9016443 
    2450   0.72120523   -6.1293829    1.0815374   -5.0478455    3.7638507 
    2500   0.71042998    -6.108403    1.0653786   -5.0430244    3.8597148 
    2550   0.69790842   -6.1023497    1.0466009   -5.0557488      3.88296 
    2600   0.70276405   -6.1018551    1.0538825   -5.0479725    3.8826047 
    2650   0.70469906   -6.1143414    1.0567843   -5.0575571    3.8272812 
    2700   0.70340811   -6.0954095    1.0548484   -5.0405611     3.920401 
    2750   0.70916825   -6.1074349    1.0634864   -5.0439485    3.8639889 
    2800   0.70187471   -6.0804115    1.0525489   -5.0278627    3.9753215 
    2850   0.71344384    -6.109432    1.0698982   -5.0395338    3.8422159 
    2900   0.70486277   -6.1163992    1.0570298   -5.0593693    3.7911453 
    2950   0.71878349   -6.1189625    1.0779057   -5.0410568    3.7967098 
    3000   0.71118725   -6.1117238    1.0665142   -5.0452096    3.8172082 
    3050   0.71107272   -6.1012891    1.0663424   -5.0349467     3.874484 
    3100   0.71533119   -6.1121376    1.0727285   -5.0394091    3.8415078 
    3150   0.69965616   -6.1016532    1.0492219   -5.0524314    3.8813408 
    3200   0.69803514   -6.1166669     1.046791    -5.069876    3.7925823 
    3250   0.70094578    -6.127843    1.0511558   -5.0766872    3.7238237 
    3300   0.70267253   -6.1223188    1.0537453   -5.0685735     3.770721 
    3350   0.69817315   -6.1167624    1.0469979   -5.0697645    3.8038901 
    3400   0.69112893   -6.1148778    1.0364342   -5.0784436    3.7851136 
    3450   0.70561129   -6.1379523    1.0581523   -5.0797999     3.674385 
    3500   0.70726904   -6.1253727    1.0606383   -5.0647344    3.7457314 
    3550   0.69975954   -6.1224683    1.0493769   -5.0730914    3.7637359 
    3600   0.69979472   -6.1265415    1.0494297   -5.0771118    3.7431015 
    3650   0.68508546   -6.1308292    1.0273713    -5.103458    3.7056209 
    3700   0.68492716   -6.1430998    1.0271339   -5.1159659     3.639195 
    3750   0.70827623   -6.1444278    1.0621487    -5.082279     3.653865 
    3800   0.69865016   -6.1441817    1.0477132   -5.0964684    3.6515196 
    3850     0.712865   -6.1419347    1.0690302   -5.0729046    3.6660735 
    3900   0.69979897   -6.1361963     1.049436   -5.0867603    3.6821621 
    3950    0.7029189   -6.1351266    1.0541148   -5.0810118    3.7030208 
    4000   0.70206631   -6.1228668    1.0528362   -5.0700306    3.7516743 
    4050   0.70652987   -6.1257774    1.0595298   -5.0662476    3.7446613 
    4100   0.70763325   -6.1328577    1.0611845   -5.0716732    3.7082566 
    4150    0.7015257   -6.1314297    1.0520255   -5.0794042    3.7103486 
    4200   0.69905625   -6.1142368    1.0483222   -5.0659145      3.79652 
    4250   0.70112086   -6.1071143    1.0514184    -5.055696    3.8223226 
    4300   0.70421811   -6.1111161    1.0560631   -5.0550531    3.8108751 
    4350   0.70312236   -6.1261161    1.0544199   -5.0716962     3.751074 
    4400   0.69418361   -6.1181175    1.0410151   -5.0771024     3.765813 
    4450   0.70941132   -6.1297771     1.063851   -5.0659262    3.7113924 
    4500   0.71081815   -6.1354264    1.0659607   -5.0694657    3.6931342 
    4550   0.72224047   -6.1314844    1.0830899   -5.0483945    3.7368698 
    4600   0.70569364   -6.1121639    1.0582758   -5.0538881    3.8268459 
    4650    0.7135401   -6.1257447    1.0700426   -5.0557022    3.7699171 
    4700    0.6954142    -6.108245    1.0428605   -5.0653845    3.8407385 
    4750   0.69098658   -6.1254557    1.0362207   -5.0892349    3.7445634 
    4800    0.6998427   -6.1307449    1.0495016   -5.0812433     3.703392 
    4850   0.69408523   -6.1329691    1.0408676   -5.0921015    3.7002319 
    4900    0.7082283   -6.1395417    1.0620769   -5.0774648    3.6915138 
    4950   0.69751574   -6.1281449     1.046012   -5.0821328    3.7340338 
    5000   0.70931091   -6.1183369    1.0637004   -5.0546366    3.7878392 
Loop time of 5.61858 on 1 procs for 5000 steps with 4000 atoms

Performance: 76887.735 tau/day, 889.904 timesteps/s
100.0% CPU use with 1 MPI tasks x 1 OpenMP threads

MPI task timing breakdown:
Section |  min time  |  avg time  |  max time  |%varavg| %total
---------------------------------------------------------------
Pair    | 4.5918     | 4.5918     | 4.5918     |   0.0 | 81.73
Neigh   | 0.35822    | 0.35822    | 0.35822    |   0.0 |  6.38
Comm    | 0.06014    | 0.06014    | 0.06014    |   0.0 |  1.07
Output  | 0.0015117  | 0.0015117  | 0.0015117  |   0.0 |  0.03
Modify  | 0.57603    | 0.57603    | 0.57603    |   0.0 | 10.25
Other   |            | 0.03086    |            |       |  0.55

Nlocal:        4000.00 ave        4000 max        4000 min
Histogram: 1 0 0 0 0 0 0 0 0 0
Nghost:        5794.00 ave        5794 max        5794 min
Histogram: 1 0 0 0 0 0 0 0 0 0
Neighs:        169343.0 ave      169343 max      169343 min
Histogram: 1 0 0 0 0 0 0 0 0 0

Total # of neighbors = 169343
Ave neighs/atom = 42.335750
Neighbor list builds = 112
Dangerous builds = 0
clear
OMP_NUM_THREADS environment is not set. Defaulting to 1 thread. (src/comm.cpp:98)
  using 1 OpenMP thread(s) per MPI task
next t
next a
jump SELF
# 1) Initialization
units lj
dimension 3
atom_style atomic
pair_style lj/cut 2.5
boundary p p p

# 2) System definition
variable a loop 6
# Define temperatures
variable t index 1.1 1.0 0.9 0.8 0.7 0.6

# 4) Visualization
thermo 50

# 5) Run
log log.$a
log log.6
