read_data config.data
Reading data file ...
  orthogonal box = (0.0000000 0.0000000 0.0000000) to (16.147754 16.147754 16.147754)
  1 by 1 by 1 MPI processor grid
  reading atoms ...
  4000 atoms
  reading velocities ...
  4000 velocities
  read_data CPU = 0.004 seconds
thermo_style custom step temp pe ke etotal press
velocity all create $t 12345 mom yes rot yes dist gaussian
velocity all create 1.1 12345 mom yes rot yes dist gaussian
# NVT simulation at T = $t (till equilibration)
fix mynve all nve
fix mylgv all langevin $t $t 0.1 12345 zero yes
fix mylgv all langevin 1.1 $t 0.1 12345 zero yes
fix mylgv all langevin 1.1 1.1 0.1 12345 zero yes
timestep 0.001
run 5000
Neighbor list info ...
  update every 1 steps, delay 10 steps, check yes
  max neighbors/atom: 2000, page size: 100000
  master list distance cutoff = 2.8
  ghost atom cutoff = 2.8
  binsize = 1.4, bins = 12 12 12
  1 neighbor lists, perpetual/occasional/extra = 1 0 0
  (1) pair lj/cut, perpetual
      attributes: half, newton on
      pair build: half/bin/atomonly/newton
      stencil: half/bin/3d
      bin: standard
Per MPI rank memory allocation (min/avg/max) = 3.690 | 3.690 | 3.690 Mbytes
Step Temp PotEng KinEng TotEng Press 
       0          1.1   -5.4449459    1.6495875   -3.7953584    7.5956468 
      50    1.1358108   -5.5347165    1.7032902   -3.8314263    7.1880026 
     100    1.1102501   -5.5496872    1.6649587   -3.8847284     7.076518 
     150    1.1297711   -5.5339725    1.6942329   -3.8397396    7.1741057 
     200    1.1196057    -5.555533    1.6789886   -3.8765444    7.0797684 
     250    1.1046664   -5.5529929    1.6565854   -3.8964075    7.0683273 
     300    1.1190782   -5.5653657    1.6781977    -3.887168    7.0305067 
     350    1.1017694   -5.5683579     1.652241   -3.9161169     6.979814 
     400    1.0935159   -5.5711417    1.6398638   -3.9312779    6.9521501 
     450    1.1145242   -5.5719723    1.6713684   -3.9006039    6.9673356 
     500    1.0922261   -5.5541707    1.6379296   -3.9162411    7.0143678 
     550    1.1103716   -5.5689548     1.665141   -3.9038138    6.9493298 
     600    1.1205316   -5.5827333    1.6803772   -3.9023561    6.8989774 
     650    1.1068967   -5.5799363    1.6599299   -3.9200064    6.9060412 
     700    1.0960959   -5.5674086    1.6437329   -3.9236758    6.9538592 
     750    1.1035109   -5.5713784    1.6548525   -3.9165259    6.9465501 
     800    1.1247545   -5.5958797    1.6867099   -3.9091698    6.8389807 
     850    1.1043155   -5.5550478    1.6560591   -3.8989887    7.0288426 
     900    1.1205441   -5.5674171    1.6803959   -3.8870212    6.9709582 
     950    1.0939661   -5.5765815    1.6405389   -3.9360426    6.8839126 
    1000    1.1011559    -5.575083     1.651321    -3.923762    6.9090597 
    1050    1.1373503   -5.5952666     1.705599   -3.8896677    6.8576144 
    1100    1.1138723   -5.5926049    1.6703908   -3.9222141    6.8260361 
    1150    1.0956146   -5.5924345     1.643011   -3.9494234    6.8122285 
    1200    1.0764908    -5.583019    1.6143326   -3.9686865    6.8644286 
    1250    1.1239885   -5.6055625    1.6855613   -3.9200013    6.8056651 
    1300    1.0899516   -5.5876148    1.6345186   -3.9530962    6.8638296 
    1350    1.1181107   -5.5902317    1.6767467    -3.913485      6.88714 
    1400    1.0998795   -5.6101473    1.6494069   -3.9607405    6.7518842 
    1450    1.0785407   -5.6251847    1.6174066    -4.007778    6.6648894 
    1500    1.0860634    -5.616512    1.6286878   -3.9878242    6.7037809 
    1550    1.0906076   -5.6118128    1.6355025   -3.9763104    6.7321469 
    1600    1.0967802   -5.6211806     1.644759   -3.9764216    6.7034204 
    1650    1.0954798   -5.6269824    1.6428088   -3.9841736    6.6775206 
    1700    1.0959635   -5.6258225    1.6435342   -3.9822883    6.6812748 
    1750    1.0952694   -5.6297607    1.6424933   -3.9872674    6.6668811 
    1800    1.0998781   -5.6204586    1.6494047   -3.9710539    6.7167755 
    1850    1.0843595   -5.6297718    1.6261327   -4.0036391    6.6468924 
    1900    1.0648626   -5.6340636    1.5968946    -4.037169    6.6071437 
    1950    1.0871121   -5.6198864    1.6302605   -3.9896259    6.7125089 
    2000    1.0947781   -5.6390153    1.6417567   -3.9972587    6.6198525 
    2050    1.0820395   -5.6083465    1.6226535    -3.985693    6.7481006 
    2100    1.0881371   -5.6191164    1.6317977   -3.9873187    6.7019653 
    2150    1.0856367   -5.6198752    1.6280479   -3.9918274    6.6889033 
    2200    1.0969168   -5.6527303    1.6449639   -4.0077664    6.5359402 
    2250    1.1091941   -5.6212007    1.6633752   -3.9578255     6.704594 
    2300    1.0982591   -5.5975784    1.6469769   -3.9506016      6.80667 
    2350    1.1185473   -5.6133325    1.6774015    -3.935931    6.7478948 
    2400    1.0840866   -5.6069883    1.6257234   -3.9812648    6.7476273 
    2450    1.1039077   -5.6369553    1.6554476   -3.9815077    6.6165187 
    2500    1.1145773   -5.6225568    1.6714479   -3.9511089    6.6936664 
    2550    1.1017902   -5.6055392    1.6522721    -3.953267    6.7706787 
    2600     1.072669   -5.5840371    1.6086012   -3.9754359    6.8498193 
    2650    1.1132654   -5.6115322    1.6694807   -3.9420515    6.7577959 
    2700     1.111714   -5.5925677    1.6671542   -3.9254135    6.8564383 
    2750    1.1086892   -5.5960378     1.662618   -3.9334198    6.8473878 
    2800    1.1067194   -5.5946453     1.659664   -3.9349812     6.846885 
    2850    1.1144598   -5.5999986    1.6712718   -3.9287268    6.8130742 
    2900    1.0970978   -5.5676945    1.6452353   -3.9224592    6.9599707 
    2950    1.1132416   -5.5931232    1.6694449   -3.9236784    6.8426979 
    3000    1.1204384    -5.597966    1.6802375   -3.9177285    6.8166101 
    3050    1.0978115   -5.5604997    1.6463056   -3.9141941    6.9734345 
    3100    1.1206364   -5.5886801    1.6805343   -3.9081458    6.8766258 
    3150    1.0910534   -5.5832707     1.636171   -3.9470998    6.8728833 
    3200     1.108266   -5.6022648    1.6619834   -3.9402814    6.8067353 
    3250     1.097908   -5.6040124    1.6464503   -3.9575621    6.7793622 
    3300    1.0962557   -5.5924699    1.6439724   -3.9484975    6.8426082 
    3350    1.0816275   -5.5758334    1.6220357   -3.9537977    6.9018467 
    3400    1.0888204   -5.6159531    1.6328222   -3.9831309     6.722468 
    3450     1.097848   -5.6199577    1.6463603   -3.9735973    6.7401911 
    3500    1.0942229   -5.6101399     1.640924    -3.969216    6.7583205 
    3550    1.0802451   -5.5800113    1.6199626   -3.9600488    6.8766408 
    3600    1.1328371   -5.6360131    1.6988308   -3.9371823    6.6876324 
    3650    1.0795959   -5.5800296     1.618989   -3.9610406    6.8975761 
    3700    1.0893203   -5.5704353     1.633572   -3.9368633    6.9525403 
    3750    1.1074021   -5.5806801    1.6606879   -3.9199922    6.9070352 
    3800    1.1015283    -5.586336    1.6518794   -3.9344566    6.8710575 
    3850    1.1039155   -5.5977761    1.6554593   -3.9423168    6.8159091 
    3900     1.091588   -5.5863606    1.6369727   -3.9493879    6.8606174 
    3950    1.1318732   -5.6146713    1.6973853    -3.917286    6.7529246 
    4000    1.1166231    -5.584519    1.6745159   -3.9100032    6.8805706 
    4050    1.1034874   -5.5848393    1.6548172    -3.930022    6.8630643 
    4100    1.1194692    -5.613948    1.6787841    -3.935164    6.7584483 
    4150     1.097633   -5.5884488    1.6460378    -3.942411    6.8624845 
    4200    1.1085671   -5.5725074    1.6624349   -3.9100725      6.95418 
    4250    1.0927668   -5.5388735    1.6387404   -3.9001331    7.1060749 
    4300    1.1334238   -5.5637331    1.6997106   -3.8640224    7.0139949 
    4350    1.1007717    -5.592423    1.6507448   -3.9416782    6.8432077 
    4400    1.1055598   -5.5894349    1.6579251   -3.9315098    6.8570325 
    4450    1.1130229   -5.6040694     1.669117   -3.9349525    6.7784492 
    4500    1.0999569   -5.5919687    1.6495229   -3.9424458     6.842093 
    4550    1.1146838   -5.5810309    1.6716077   -3.9094232    6.9255865 
    4600     1.088301   -5.5620555    1.6320434   -3.9300121    7.0082777 
    4650    1.1056566   -5.5812077    1.6580703   -3.9231374    6.9199723 
    4700    1.1041712   -5.6113502    1.6558428   -3.9555075    6.7656273 
    4750    1.0827313   -5.6173199     1.623691   -3.9936289    6.7095258 
    4800    1.0830812   -5.6022432    1.6242157   -3.9780275    6.7796422 
    4850    1.0924787   -5.5799783    1.6383083     -3.94167    6.8921664 
    4900    1.0984951   -5.5992334    1.6473307   -3.9519027    6.7937544 
    4950    1.1070125    -5.597602    1.6601036   -3.9374984    6.8055983 
    5000    1.1149683    -5.597622    1.6720344   -3.9255876    6.8232803 
Loop time of 6.3109 on 1 procs for 5000 steps with 4000 atoms

Performance: 68453.029 tau/day, 792.280 timesteps/s
98.7% CPU use with 1 MPI tasks x 1 OpenMP threads

MPI task timing breakdown:
Section |  min time  |  avg time  |  max time  |%varavg| %total
---------------------------------------------------------------
Pair    | 5.0749     | 5.0749     | 5.0749     |   0.0 | 80.41
Neigh   | 0.50275    | 0.50275    | 0.50275    |   0.0 |  7.97
Comm    | 0.067971   | 0.067971   | 0.067971   |   0.0 |  1.08
Output  | 0.0018     | 0.0018     | 0.0018     |   0.0 |  0.03
Modify  | 0.63097    | 0.63097    | 0.63097    |   0.0 | 10.00
Other   |            | 0.03252    |            |       |  0.52

Nlocal:        4000.00 ave        4000 max        4000 min
Histogram: 1 0 0 0 0 0 0 0 0 0
Nghost:        5737.00 ave        5737 max        5737 min
Histogram: 1 0 0 0 0 0 0 0 0 0
Neighs:        170297.0 ave      170297 max      170297 min
Histogram: 1 0 0 0 0 0 0 0 0 0

Total # of neighbors = 170297
Ave neighs/atom = 42.574250
Neighbor list builds = 144
Dangerous builds = 0
clear
OMP_NUM_THREADS environment is not set. Defaulting to 1 thread. (src/comm.cpp:98)
  using 1 OpenMP thread(s) per MPI task
next t
next a
jump SELF
# 1) Initialization
units lj
dimension 3
atom_style atomic
pair_style lj/cut 2.5
boundary p p p

# 2) System definition
variable a loop 6
# Define temperatures
variable t index 1.1 1.0 0.9 0.8 0.7 0.6

# 4) Visualization
thermo 50

# 5) Run
log log.$a
log log.2
