read_data config.data
Reading data file ...
  orthogonal box = (0.0000000 0.0000000 0.0000000) to (16.147754 16.147754 16.147754)
  1 by 1 by 1 MPI processor grid
  reading atoms ...
  4000 atoms
  reading velocities ...
  4000 velocities
  read_data CPU = 0.004 seconds
thermo_style custom step temp pe ke etotal press
velocity all create $t 12345 mom yes rot yes dist gaussian
velocity all create 0.9 12345 mom yes rot yes dist gaussian
# NVT simulation at T = $t (till equilibration)
fix mynve all nve
fix mylgv all langevin $t $t 0.1 12345 zero yes
fix mylgv all langevin 0.9 $t 0.1 12345 zero yes
fix mylgv all langevin 0.9 0.9 0.1 12345 zero yes
timestep 0.001
run 5000
Neighbor list info ...
  update every 1 steps, delay 10 steps, check yes
  max neighbors/atom: 2000, page size: 100000
  master list distance cutoff = 2.8
  ghost atom cutoff = 2.8
  binsize = 1.4, bins = 12 12 12
  1 neighbor lists, perpetual/occasional/extra = 1 0 0
  (1) pair lj/cut, perpetual
      attributes: half, newton on
      pair build: half/bin/atomonly/newton
      stencil: half/bin/3d
      bin: standard
Per MPI rank memory allocation (min/avg/max) = 3.690 | 3.690 | 3.690 Mbytes
Step Temp PotEng KinEng TotEng Press 
       0          0.9   -5.4449459    1.3496625   -4.0952834    7.4056943 
      50   0.98781861   -5.6588241    1.4813575   -4.1774666    6.4450877 
     100   0.94430607   -5.7094084     1.416105   -4.2933034    6.1274123 
     150   0.94596799    -5.714685    1.4185972   -4.2960878    6.1001422 
     200   0.93190346   -5.7520862    1.3975057   -4.3545804    5.9188588 
     250    0.9119829   -5.7588488    1.3676324   -4.3912164    5.8565156 
     300   0.91998321   -5.7744773    1.3796298   -4.3948474    5.7915196 
     350   0.90500071   -5.7846952    1.3571617   -4.4275335    5.7100949 
     400   0.89816815   -5.7923123    1.3469154   -4.4453969    5.6580082 
     450    0.9106865   -5.7922217    1.3656882   -4.4265335    5.6656244 
     500   0.89680411   -5.7860015    1.3448699   -4.4411316    5.6680194 
     550   0.90875415   -5.7993688    1.3627904   -4.4365784    5.6039388 
     600   0.91832844    -5.811437    1.3771483   -4.4342887     5.561677 
     650    0.9076181   -5.8140187    1.3610868   -4.4529319    5.5410478 
     700   0.89938263   -5.8074175    1.3487367   -4.4586808    5.5595714 
     750   0.90580222   -5.8118408    1.3583637   -4.4534772    5.5515673 
     800   0.91900593   -5.8246756    1.3781643   -4.4465113    5.4950318 
     850   0.90930325   -5.8032299    1.3636139    -4.439616    5.5992723 
     900    0.9148219   -5.8084449    1.3718898   -4.4365551    5.5707885 
     950   0.89242893   -5.8148129    1.3383087   -4.4765042    5.4998611 
    1000   0.90397465   -5.8298286     1.355623   -4.4742056    5.4430678 
    1050   0.91601831   -5.8230974     1.373684   -4.4494134    5.4920343 
    1100   0.89715371   -5.8077204    1.3453941   -4.4623263    5.5342718 
    1150   0.90884715   -5.8469931    1.3629299   -4.4840632    5.3591752 
    1200   0.88610219   -5.8401945     1.328821   -4.5113735    5.3750171 
    1250   0.89927792   -5.8110834    1.3485797   -4.4625038    5.5407702 
    1300   0.90800463   -5.8418483    1.3616664   -4.4801819     5.417627 
    1350   0.90380658   -5.8379943    1.3553709   -4.4826234    5.4219605 
    1400    0.8946867    -5.828825    1.3416945   -4.4871305    5.4518349 
    1450   0.88515667   -5.8406986    1.3274031   -4.5132955      5.37092 
    1500   0.91238277   -5.8418787     1.368232   -4.4736467    5.3836187 
    1550   0.90108553   -5.8242336    1.3512904   -4.4729433      5.44689 
    1600   0.90061955   -5.8172682    1.3505916   -4.4666766    5.4926889 
    1650   0.90562996    -5.807293    1.3581053   -4.4491877    5.5568029 
    1700   0.90550516   -5.8333029    1.3579182   -4.4753847    5.4335137 
    1750   0.91164869   -5.8479501    1.3671312   -4.4808189    5.3556146 
    1800   0.91563675   -5.8580119    1.3731118   -4.4849001    5.3023801 
    1850   0.89030255    -5.848684      1.33512   -4.5135641    5.3416581 
    1900    0.8734672   -5.8162983    1.3098732   -4.5064251    5.4981555 
    1950   0.90992659   -5.8477112    1.3645487   -4.4831625    5.3612403 
    2000   0.90254667   -5.8526309    1.3534815   -4.4991493    5.3289714 
    2050   0.90055571   -5.8262152    1.3504959   -4.4757193    5.4878398 
    2100   0.90995766   -5.8278798    1.3645953   -4.4632846    5.4920966 
    2150    0.9115743   -5.8337859    1.3670196   -4.4667662    5.4598186 
    2200   0.91773966   -5.8590441    1.3762653   -4.4827788     5.350376 
    2250   0.91121182   -5.8534902     1.366476   -4.4870142     5.351375 
    2300    0.9022667   -5.8614952    1.3530617   -4.5084335    5.2963676 
    2350   0.89359882   -5.8446553    1.3400631   -4.5045922    5.3732564 
    2400   0.89202546   -5.8474693    1.3377037   -4.5097656    5.3564464 
    2450   0.89110573   -5.8448106    1.3363244   -4.5084862    5.3590154 
    2500   0.91618994   -5.8691139    1.3739413   -4.4951725    5.2612159 
    2550   0.89531213   -5.8602186    1.3426325   -4.5175862    5.2955497 
    2600   0.89698989   -5.8504727    1.3451485   -4.5053242    5.3616968 
    2650   0.90052455   -5.8395442    1.3504491    -4.489095    5.4367744 
    2700   0.91059881   -5.8362209    1.3655567   -4.4706642    5.4585994 
    2750   0.92069868   -5.8411563    1.3807028   -4.4604535    5.4155751 
    2800   0.90437899   -5.8394448    1.3562293   -4.4832155    5.3782372 
    2850   0.90353866   -5.8538635    1.3549692   -4.4988944    5.3079476 
    2900   0.89511964   -5.8482507    1.3423438   -4.5059069    5.3441053 
    2950   0.92509686   -5.8499527    1.3872984   -4.4626543    5.3521927 
    3000   0.89775118     -5.83131    1.3462901   -4.4850199    5.4199841 
    3050   0.88449983   -5.8378841    1.3264181    -4.511466    5.3831658 
    3100    0.9139039    -5.855627    1.3705131   -4.4851139    5.3344919 
    3150   0.90878159   -5.8490394    1.3628316   -4.4862079    5.3548867 
    3200   0.88189648   -5.8495646     1.322514   -4.5270506     5.338193 
    3250   0.89660998   -5.8377648    1.3445787   -4.4931861    5.4212517 
    3300   0.90322726   -5.8668993    1.3545022   -4.5123971    5.2800361 
    3350   0.88619506   -5.8861119    1.3289603   -4.5571517    5.1727491 
    3400    0.8825792   -5.8682502    1.3235378   -4.5447123    5.2486393 
    3450    0.8949323   -5.8672383    1.3420628   -4.5251755    5.2593797 
    3500   0.88912792   -5.8408161    1.3333584   -4.5074577    5.3820556 
    3550   0.91803927   -5.8740779    1.3767146   -4.4973632    5.2494315 
    3600   0.89094653   -5.8481319    1.3360857   -4.5120462     5.354715 
    3650   0.89210665   -5.8626064    1.3378254   -4.5247809    5.3022635 
    3700   0.88270316   -5.8418739    1.3237237   -4.5181501    5.3948399 
    3750   0.92135477   -5.8577035    1.3816867   -4.4760168    5.3339044 
    3800   0.90014987    -5.860516    1.3498872   -4.5106288    5.2939831 
    3850   0.91723621   -5.8705847    1.3755104   -4.4950743    5.2437922 
    3900   0.90465682   -5.8764015     1.356646   -4.5197555    5.2087494 
    3950   0.90444389   -5.8667593    1.3563267   -4.5104326    5.2663164 
    4000   0.89711484   -5.8421022    1.3453358   -4.4967663    5.3907752 
    4050   0.88885091   -5.8340458     1.332943   -4.5011028    5.4316053 
    4100   0.90052136   -5.8495259    1.3504443   -4.4990815    5.3589557 
    4150   0.90660549   -5.8541347    1.3595683   -4.4945665    5.3423407 
    4200   0.91582681   -5.8593133    1.3733968   -4.4859165    5.3274725 
    4250   0.89064746   -5.8350351    1.3356372   -4.4993979    5.4282331 
    4300   0.91054971   -5.8457931    1.3654831     -4.48031    5.3949918 
    4350    0.9229291   -5.8574748    1.3840476   -4.4734272    5.3582487 
    4400   0.90547395   -5.8643537    1.3578714   -4.5064823    5.3051148 
    4450   0.90380438   -5.8466466    1.3553676    -4.491279    5.3859007 
    4500   0.91913747   -5.8473698    1.3783615   -4.4690083    5.3877653 
    4550    0.9234383   -5.8365876    1.3848112   -4.4517765    5.4353566 
    4600   0.90782714   -5.8299301    1.3614003   -4.4685298    5.4695255 
    4650   0.89600767   -5.8508403    1.3436755   -4.5071648    5.3633388 
    4700   0.88328868   -5.8408767    1.3246018   -4.5162749    5.3910247 
    4750   0.87406863   -5.8527187    1.3107752   -4.5419436    5.3084951 
    4800   0.88909627   -5.8666956     1.333311   -4.5333846    5.2592955 
    4850   0.88496612   -5.8695471    1.3271173   -4.5424298    5.2499472 
    4900   0.87732015   -5.8631848    1.3156512   -4.5475336    5.2669093 
    4950   0.89059352   -5.8727904    1.3355563   -4.5372341    5.2260551 
    5000   0.90675382   -5.8680057    1.3597907    -4.508215    5.2805974 
Loop time of 5.6819 on 1 procs for 5000 steps with 4000 atoms

Performance: 76030.894 tau/day, 879.987 timesteps/s
99.9% CPU use with 1 MPI tasks x 1 OpenMP threads

MPI task timing breakdown:
Section |  min time  |  avg time  |  max time  |%varavg| %total
---------------------------------------------------------------
Pair    | 4.6061     | 4.6061     | 4.6061     |   0.0 | 81.07
Neigh   | 0.4052     | 0.4052     | 0.4052     |   0.0 |  7.13
Comm    | 0.060928   | 0.060928   | 0.060928   |   0.0 |  1.07
Output  | 0.0016559  | 0.0016559  | 0.0016559  |   0.0 |  0.03
Modify  | 0.57712    | 0.57712    | 0.57712    |   0.0 | 10.16
Other   |            | 0.03088    |            |       |  0.54

Nlocal:        4000.00 ave        4000 max        4000 min
Histogram: 1 0 0 0 0 0 0 0 0 0
Nghost:        5762.00 ave        5762 max        5762 min
Histogram: 1 0 0 0 0 0 0 0 0 0
Neighs:        170070.0 ave      170070 max      170070 min
Histogram: 1 0 0 0 0 0 0 0 0 0

Total # of neighbors = 170070
Ave neighs/atom = 42.517500
Neighbor list builds = 127
Dangerous builds = 0
clear
OMP_NUM_THREADS environment is not set. Defaulting to 1 thread. (src/comm.cpp:98)
  using 1 OpenMP thread(s) per MPI task
next t
next a
jump SELF
# 1) Initialization
units lj
dimension 3
atom_style atomic
pair_style lj/cut 2.5
boundary p p p

# 2) System definition
variable a loop 6
# Define temperatures
variable t index 1.1 1.0 0.9 0.8 0.7 0.6

# 4) Visualization
thermo 50

# 5) Run
log log.$a
log log.4
