read_data config.data
Reading data file ...
  orthogonal box = (0.0000000 0.0000000 0.0000000) to (16.147754 16.147754 16.147754)
  1 by 1 by 1 MPI processor grid
  reading atoms ...
  4000 atoms
  reading velocities ...
  4000 velocities
  read_data CPU = 0.004 seconds
thermo_style custom step temp pe ke etotal press
velocity all create $t 12345 mom yes rot yes dist gaussian
velocity all create 0.6 12345 mom yes rot yes dist gaussian
# NVT simulation at T = $t (till equilibration)
fix mynve all nve
fix mylgv all langevin $t $t 0.1 12345 zero yes
fix mylgv all langevin 0.6 $t 0.1 12345 zero yes
fix mylgv all langevin 0.6 0.6 0.1 12345 zero yes
timestep 0.001
run 5000
Neighbor list info ...
  update every 1 steps, delay 10 steps, check yes
  max neighbors/atom: 2000, page size: 100000
  master list distance cutoff = 2.8
  ghost atom cutoff = 2.8
  binsize = 1.4, bins = 12 12 12
  1 neighbor lists, perpetual/occasional/extra = 1 0 0
  (1) pair lj/cut, perpetual
      attributes: half, newton on
      pair build: half/bin/atomonly/newton
      stencil: half/bin/3d
      bin: standard
Per MPI rank memory allocation (min/avg/max) = 3.690 | 3.690 | 3.690 Mbytes
Step Temp PotEng KinEng TotEng Press 
       0          0.6   -5.4449459     0.899775   -4.5451709    7.1207656 
      50   0.76660167    -5.845123     1.149615    -4.695508    5.3257183 
     100   0.69640485   -5.9516149    1.0443461   -4.9072688    4.6811697 
     150   0.67235767   -5.9947632    1.0082844   -4.9864789    4.4337686 
     200   0.64954992   -6.0516824    0.9740813   -5.0776011    4.1354637 
     250   0.62598456   -6.0794641   0.93874209    -5.140722    3.9650037 
     300   0.62201697   -6.0988948    0.9327922   -5.1661026    3.8620751 
     350   0.61275062   -6.1204093   0.91889615   -5.2015132    3.7309381 
     400   0.60473158   -6.1317812    0.9068706   -5.2249106    3.6546777 
     450   0.60931813    -6.138841    0.9137487   -5.2250923    3.6180926 
     500   0.60355536   -6.1433374   0.90510671   -5.2382307    3.5813232 
     550   0.60777867   -6.1494531   0.91144009    -5.238013     3.545255 
     600   0.61684651   -6.1653062   0.92503845   -5.2402677    3.4823345 
     650   0.60781011   -6.1716894   0.91148723   -5.2602022    3.4445854 
     700   0.60901166   -6.1763412   0.91328911   -5.2630521    3.4142685 
     750   0.60430625    -6.176162   0.90623276   -5.2699292     3.410108 
     800   0.60922808   -6.1818464   0.91361366   -5.2682327    3.3849632 
     850   0.61228498    -6.175609   0.91819786   -5.2574112    3.4234001 
     900   0.60802994   -6.1834133    0.9118169   -5.2715964    3.3754865 
     950    0.5923942   -6.1892674   0.88836916   -5.3008982    3.3109548 
    1000   0.60142081   -6.2082427   0.90190568    -5.306337     3.222198 
    1050   0.61438012   -6.2051027   0.92133978   -5.2837629    3.2538309 
    1100   0.60428129   -6.1928168   0.90619533   -5.2866214    3.3021431 
    1150   0.60440706   -6.2026546   0.90638393   -5.2962706    3.2569672 
    1200   0.60545715   -6.2130939   0.90795868   -5.3051352    3.2181785 
    1250   0.60295549   -6.2133716   0.90420712   -5.3091644    3.2140955 
    1300   0.60655812   -6.1998461   0.90960972   -5.2902364     3.286124 
    1350   0.60182814    -6.191884   0.90251652   -5.2893675    3.3229601 
    1400   0.60301805   -6.1973121   0.90430094   -5.2930112    3.2950652 
    1450   0.58448118   -6.2192828   0.87650258   -5.3427802    3.1663926 
    1500   0.60176799   -6.2150506   0.90242633   -5.3126243    3.2052426 
    1550   0.60293311   -6.2132161   0.90417356   -5.3090425    3.2146268 
    1600   0.60933847   -6.2204057    0.9137792   -5.3066265    3.1738184 
    1650   0.60419537   -6.2253921   0.90606647   -5.3193256    3.1297797 
    1700   0.60754783   -6.2368851   0.91109391   -5.3257912    3.0863039 
    1750   0.60962406    -6.243047   0.91420749   -5.3288395    3.0595969 
    1800   0.60182126   -6.2273646   0.90250621   -5.3248584    3.1274882 
    1850   0.59495598   -6.2294736   0.89221087   -5.3372627    3.1106468 
    1900   0.59702447    -6.244496   0.89531282   -5.3491832    3.0404505 
    1950    0.6036418   -6.2545524   0.90523633   -5.3493161     3.003677 
    2000    0.5914518   -6.2349755   0.88695591   -5.3480196    3.1017401 
    2050    0.5955759    -6.234949   0.89314052   -5.3418085    3.1017452 
    2100   0.60565109   -6.2422377   0.90824952   -5.3339882    3.0709358 
    2150   0.60521676   -6.2552824   0.90759818   -5.3476843    3.0068894 
    2200   0.59428206   -6.2442673   0.89120024   -5.3530671    3.0522853 
    2250   0.60215428   -6.2448855   0.90300562   -5.3418799    3.0395207 
    2300   0.59930035   -6.2436604   0.89872578   -5.3449346    3.0223797 
    2350   0.59134435   -6.2455023   0.88679476   -5.3587076    3.0072584 
    2400   0.59412836   -6.2505732   0.89096974   -5.3596034    3.0021083 
    2450   0.60115783   -6.2621789   0.90151131   -5.3606676     2.961122 
    2500    0.5967849   -6.2481283   0.89495355   -5.3531748    3.0290319 
    2550   0.58928982   -6.2450089   0.88371374   -5.3612952    3.0301763 
    2600   0.59577805   -6.2312595   0.89344366   -5.3378159    3.1028506 
    2650   0.60251218    -6.237409   0.90354233   -5.3338667    3.0766319 
    2700   0.61443897   -6.2463708   0.92142803   -5.3249428    3.0214451 
    2750   0.61180046   -6.2476068   0.91747127   -5.3301355    3.0097494 
    2800   0.59032635   -6.2209147   0.88526815   -5.3356465    3.1236901 
    2850   0.60231858   -6.2364992     0.903252   -5.3332472    3.0642634 
    2900   0.60996651   -6.2501973   0.91472103   -5.3354763    3.0072759 
    2950   0.62032028   -6.2498177    0.9302478   -5.3195699     3.027218 
    3000   0.61882251    -6.257033   0.92800171   -5.3290313    2.9858948 
    3050   0.60691098     -6.23343   0.91013887   -5.3232911    3.0763487 
    3100   0.61721413   -6.2597341   0.92558974   -5.3341444    2.9685288 
    3150   0.60595815    -6.232423      0.90871    -5.323713     3.091643 
    3200   0.61713006   -6.2485156   0.92546367   -5.3230519     3.022769 
    3250    0.5981945   -6.2359217   0.89706743   -5.3388543    3.0791923 
    3300   0.60004031   -6.2366966   0.89983545   -5.3368612    3.0875576 
    3350   0.60014295   -6.2506799   0.89998937   -5.3506905    3.0116007 
    3400   0.60287708   -6.2618807   0.90408954   -5.3577912     2.955906 
    3450   0.60151182   -6.2668115   0.90204216   -5.3647694    2.9248315 
    3500   0.61499305   -6.2818243   0.92225895   -5.3595654    2.8679807 
    3550    0.5945368   -6.2603039   0.89158225   -5.3687216    2.9438462 
    3600    0.6066308   -6.2737926   0.90971871   -5.3640739     2.884658 
    3650   0.59654264   -6.2667658   0.89459026   -5.3721756    2.9035769 
    3700   0.58824912   -6.2509379   0.88215309   -5.3687848    2.9703678 
    3750   0.60913152   -6.2678653   0.91346886   -5.3543964    2.9121885 
    3800   0.60979449   -6.2720767   0.91446306   -5.3576136    2.8923979 
    3850   0.60467915   -6.2648094   0.90679198   -5.3580174    2.9290516 
    3900   0.60968994   -6.2639176   0.91430628   -5.3496113    2.9460725 
    3950   0.59974002   -6.2500492   0.89938512   -5.3506641    2.9970003 
    4000   0.61256975   -6.2609269   0.91862491    -5.342302    2.9438051 
    4050   0.59513304   -6.2532948   0.89247638   -5.3608184    2.9596512 
    4100   0.61404794   -6.2659051   0.92084164   -5.3450634     2.925543 
    4150   0.61139081   -6.2597198   0.91685694   -5.3428629    2.9717612 
    4200   0.61200638   -6.2645449   0.91778007   -5.3467648    2.9551387 
    4250   0.60565743   -6.2543561   0.90825902    -5.346097    2.9991952 
    4300   0.60535724   -6.2607367   0.90780885   -5.3529279    2.9538366 
    4350   0.59731749   -6.2658011   0.89575225   -5.3700488    2.9210966 
    4400   0.59486639   -6.2730256   0.89207651   -5.3809491    2.8840739 
    4450   0.59906263   -6.2790308    0.8983693   -5.3806615    2.8553685 
    4500   0.60097977   -6.2729425   0.90124428   -5.3716982    2.8797247 
    4550   0.61686172   -6.2728876   0.92506126   -5.3478263    2.8882305 
    4600   0.59919454   -6.2693959   0.89856711   -5.3708288    2.8891976 
    4650   0.58784801    -6.269319   0.88155157   -5.3877674     2.877551 
    4700   0.60313715   -6.2831569   0.90447955   -5.3786774    2.8341373 
    4750   0.59629024   -6.2963949   0.89421175   -5.4021831    2.7565648 
    4800   0.59939474    -6.288317   0.89886733   -5.3894497    2.7864256 
    4850   0.59095773   -6.2790406   0.88621499   -5.3928256    2.8396681 
    4900   0.60470688   -6.2810106   0.90683355   -5.3741771     2.861426 
    4950    0.6026661    -6.269023   0.90377314   -5.3652498    2.9060787 
    5000    0.6111407    -6.274656   0.91648188   -5.3581741     2.881846 
Loop time of 5.55426 on 1 procs for 5000 steps with 4000 atoms

Performance: 77778.135 tau/day, 900.210 timesteps/s
100.0% CPU use with 1 MPI tasks x 1 OpenMP threads

MPI task timing breakdown:
Section |  min time  |  avg time  |  max time  |%varavg| %total
---------------------------------------------------------------
Pair    | 4.5656     | 4.5656     | 4.5656     |   0.0 | 82.20
Neigh   | 0.32543    | 0.32543    | 0.32543    |   0.0 |  5.86
Comm    | 0.05824    | 0.05824    | 0.05824    |   0.0 |  1.05
Output  | 0.001399   | 0.001399   | 0.001399   |   0.0 |  0.03
Modify  | 0.57281    | 0.57281    | 0.57281    |   0.0 | 10.31
Other   |            | 0.03081    |            |       |  0.55

Nlocal:        4000.00 ave        4000 max        4000 min
Histogram: 1 0 0 0 0 0 0 0 0 0
Nghost:        5777.00 ave        5777 max        5777 min
Histogram: 1 0 0 0 0 0 0 0 0 0
Neighs:        169099.0 ave      169099 max      169099 min
Histogram: 1 0 0 0 0 0 0 0 0 0

Total # of neighbors = 169099
Ave neighs/atom = 42.274750
Neighbor list builds = 102
Dangerous builds = 0
clear
OMP_NUM_THREADS environment is not set. Defaulting to 1 thread. (src/comm.cpp:98)
  using 1 OpenMP thread(s) per MPI task
next t
next a
jump SELF
Total wall time: 0:00:34
